{
   "https://www.alibaba.com/product-detail/High-purity-c10h15n-crystalmethamphetmine-nisopropylbenzylamine-cas_1600646974905.html": {
      "Product_Detail": {
         "product-title": "High purity c10h15n crystalmethamphetmine nisopropylbenzylamine cas 102976 c10h15n crystal fast delivery in stock",
         "product-benefits": "Benefits:\nQuick refunds on orders under US $1,000\nClaim now",
         "product-samples": "$15.00/gram\nMin. order : 1 gram\nGet samples",
         "product-lead_time": "Quantity (grams) 1 - 1 2 - 100 101 - 1000 > 1000\nLead time (days) 10 10 15 To be negotiated",
         "product-customization": "Customized logo(Min. order 50000000 grams)\nCustomized packaging(Min. order 50000000 grams)\nMore",
         "product-shipping": "Express\nOcean freight\nLand freight\nAir freight"
      },
      "Product_Images": {
         "0": "https://s.alicdn.com/@img/imgextra/i4/6000000001787/O1CN013yNIRr1P4UYVt1GId_!!6000000001787-0-tbvideo.jpg_100x100xz.jpg",
         "1": "https://s.alicdn.com/@sc04/kf/Hf336f60dd8b34763a9902772d65e4679y.png_100x100xz.png",
         "2": "https://s.alicdn.com/@sc04/kf/Hec0d9d425ce84cbda61156eae8774a6dn.jpg_100x100xz.jpg",
         "3": "https://s.alicdn.com/@sc04/kf/H86181b8517cd413b866a87d61ab8b6d0W.png_100x100xz.png",
         "4": "https://s.alicdn.com/@sc04/kf/Hd7881d80c4004b28b0adac7c9fd07eabc.jpg_100x100xz.jpg",
         "5": "https://s.alicdn.com/@sc04/kf/H6b763d7b21b5433f8d222b34ae718c11v.jpg_100x100xz.jpg",
         "6": "https://s.alicdn.com/@sc04/kf/H9994b8648ad845d6955bbd84b0022153d.jpg_100x100xz.jpg"
      },
      "Product_Reviews": {
         "global_reviews": "5.0",
         "Reviews": "1",
         "buyers": "8"
      },
      "Product_Price": {
         "1 - 99 grams": "$0.70",
         "100 - 999 grams": "$0.63",
         ">= 1000 grams": "$0.60"
      },
      "Product_Overview": {
         "CAS No.:": "102-97-6",
         "Other Names:": "N-Isopropylbenzylamine",
         "MF:": "C10H15N",
         "EINECS No.:": "203-067-6",
         "Place of Origin:": "China",
         "Type:": "intermediate",
         "Purity:": "99%",
         "Brand Name:": "JiangDing Bio",
         "Model Number:": "102-97-6",
         "Appearance:": "Blue Crystal",
         "Product name:": "N-Isopropylbenzylamine",
         "CAS:": "102-97-6",
         "Molecular formula:": "C10H15N",
         "Packing:": "25KG/Drum 20KG/Drum",
         "Shelf life:": "2 Years",
         "MOQ:": "1 Kg",
         "Color:": "Blue"
      }
   },
   "https://www.alibaba.com/product-detail/R134a-R404a-R410a-R507-refrigerant-gas_1600255218288.html": {
      "Product_Detail": {
         "product-title": "R134a R404a R410a R507 refrigerant gas",
         "product-benefits": "Benefits:\nQuick refunds on orders under US $1,000\nClaim now",
         "product-lead_time": "Quantity (pieces) 1 - 500 501 - 1150 > 1150\nLead time (days) 7 20 To be negotiated",
         "product-customization": "Customized logo(Min. order 300 pieces)\nCustomized packaging(Min. order 300 pieces)\nMore"
      },
      "Product_Images": {
         "0": "https://s.alicdn.com/@img/imgextra/i3/6000000002734/O1CN01XEdCkl1W4DWdUCBJj_!!6000000002734-0-tbvideo.jpg_100x100xz.jpg",
         "1": "https://s.alicdn.com/@sc04/kf/H6527a4e855af4f29ac3823b9e1398217D.jpg_100x100xz.jpg",
         "2": "https://s.alicdn.com/@sc04/kf/Ha3606119ba6e4802869f948e34ffe57aO.jpg_100x100xz.jpg",
         "3": "https://s.alicdn.com/@sc04/kf/Hfed573b8750e4ce6904fd89759dbf220m.jpg_100x100xz.jpg",
         "4": "https://s.alicdn.com/@sc04/kf/Hf0597964cf284061b54d9b41d66382ea5.jpg_100x100xz.jpg",
         "5": "https://s.alicdn.com/@sc04/kf/H035d1e6591d14e73ade51145b80b9c26z.jpg_100x100xz.jpg",
         "6": "https://s.alicdn.com/@sc04/kf/H9c00d5995570498b82113fad421d4affV.jpg_100x100xz.jpg"
      },
      "Product_Reviews": {
         "buyers": "3"
      },
      "Product_Price": {
         "1 - 299 pieces": "$40.00",
         ">= 300 pieces": "$20.00"
      },
      "Product_Overview": {
         "Classification:": "Alkene & Derivatives",
         "CAS No.:": "811-97-2",
         "Other Names:": "R507a mixed refrigerant",
         "MF:": "CH2FCF3",
         "EINECS No.:": "212-337-0",
         "Place of Origin:": "Zhejiang,China",
         "Grade Standard:": "Reagent Grade",
         "Purity:": "99.9%",
         "Appearance:": "Colorless",
         "Application:": "Refrigerant Gas",
         "Brand Name:": "Wula, OEM and Neutral packing",
         "Model Number:": "R134a",
         "Gross Weight:": "16.6KG R134a Refrigerant",
         "Volume:": "0.25CBM Refrigerant",
         "Factory:": "Yes",
         "Standard:": "ARI 700",
         "OEM:": "Yes",
         "Price:": "Competitive",
         "MOQ:": "300 PCS",
         "Critical pressure:": "4.06 Mpa",
         "ASHRAE Security Level:": "A1(non-toxic and non-flammable",
         "GWP:": "1300"
      }
   },
   "https://www.alibaba.com/product-detail/N-Isopropylbenzylamine-102-97-6-C10H15N_1600488167933.html": {
      "Product_Detail": {
         "product-title": "N-Isopropylbenzylamine 102-97-6 C10H15N Powder/Crystal",
         "product-benefits": "Benefits:\nQuick refunds on orders under US $1,000\nClaim now",
         "product-lead_time": "Quantity (grams) 1 - 10 > 10\nLead time (days) 3 To be negotiated",
         "product-shipping": "Express\nOcean freight"
      },
      "Product_Images": {
         "0": "https://s.alicdn.com/@img/imgextra/i3/6000000003268/O1CN01xJjWDL1a0n4s0crGA_!!6000000003268-0-tbvideo.jpg_100x100xz.jpg",
         "1": "https://s.alicdn.com/@sc04/kf/H55c40b89f8f342738271fd89f7a7f7dfR.jpg_100x100xz.jpg",
         "2": "https://s.alicdn.com/@sc04/kf/H6c1a03e6dfc343e1af07f26586db5d3ao.jpg_100x100xz.jpg",
         "3": "https://s.alicdn.com/@sc04/kf/H2ae9bd48a0714337a4459b41797c9802h.jpg_100x100xz.jpg",
         "4": "https://s.alicdn.com/@sc04/kf/Hbc0226a0efa545a78185f87b5b8d6f17H.png_100x100xz.png",
         "5": "https://s.alicdn.com/@sc04/kf/H1bfc3164cdad4a979f45a11abaa9698fz.jpg_100x100xz.jpg",
         "6": "https://s.alicdn.com/@sc04/kf/H790f8f04c4eb4f05993e2836c48b3d87U.jpg_100x100xz.jpg"
      },
      "Product_Reviews": {},
      "Product_Price": {
         "1 - 9 grams": "$0.65",
         ">= 10 grams": "$0.60"
      },
      "Product_Overview": {
         "CAS No.:": "102-97-6",
         "Other Names:": "N-Isopropylbenzylamine",
         "MF:": "C10H15N",
         "EINECS No.:": "203-067-6",
         "Place of Origin:": "Hebei, China",
         "Type:": "Syntheses Material Intermediates",
         "Purity:": "99.8%",
         "Brand Name:": "Yaoluo",
         "Model Number:": "YL-102-97-6",
         "Application:": "Organic intermediate",
         "Appearance:": "Colorless Crystal / Colored Crystal",
         "Product name:": "N-Isopropylbenzylamine",
         "CAS:": "102-97-6",
         "Package:": "1kg/foil bag 25kg/drum",
         "Storage:": "Cool Dry Place",
         "MOQ:": "500 grams",
         "Shelf life:": "2 Years",
         "Sample:": "Available",
         "Certification:": "COA MSDS TDS",
         "Melting point:": "143 \u2103",
         "Boiling point:": "200 \u2103"
      }
   },
   "https://www.alibaba.com/product-detail/Premium-Quality-6mm-8mm-Big-Bag_10000004541042.html": {
      "Product_Detail": {
         "product-title": "Premium Quality 6mm 8mm | Big Bag or 15 kg bags | Fuel Oak/Pine Wood Pellets",
         "product-lead_time": "Quantity (tons) 1 - 500 > 500\nLead time (days) 7 To be negotiated",
         "product-shipping": "Ocean freight"
      },
      "Product_Images": {
         "0": "https://s.alicdn.com/@sc04/kf/U02a0141c80114d7ea4fe7eab524d65acK.jpeg_100x100xz.jpeg",
         "1": "https://s.alicdn.com/@sc04/kf/Uc23d01e1eeab4e83935fe5ec2a85ad60n.jpg_100x100xz.jpg",
         "2": "https://s.alicdn.com/@sc04/kf/U90455df39da5420a95d09e01c70a01e0n.png_100x100xz.png",
         "3": "https://s.alicdn.com/@sc04/kf/U1eb35c1230f3454f93238f477d3eba41t.jpg_100x100xz.jpg",
         "4": "https://s.alicdn.com/@sc04/kf/U0b992607768e46d9b1e365c922403af6z.jpg_100x100xz.jpg",
         "5": "https://s.alicdn.com/@sc04/kf/U14c1016b26fe4f14892f4662dbc36359D.jpg_100x100xz.jpg"
      },
      "Product_Reviews": {},
      "Product_Price": {
         "price": "$86.61 - $97.44/ ton |3 ton/tons(Min. order)"
      },
      "Product_Overview": {
         "Application:": "Cooking Fuel",
         "Density:": "100",
         "Diameter:": "1",
         "Shape:": "Briquette",
         "Length:": "125",
         "Calory (J):": "4500",
         "Moisture (%):": "100",
         "Place of Origin:": "Netherlands",
         "Brand Name:": "Wood pellets",
         "Model Number:": "Wood pellets",
         "Ash Content (%):": "99"
      }
   },
   "https://www.alibaba.com/product-detail/6mm-Din-plus-EN-plus-A1_1600622374108.html": {
      "Product_Detail": {
         "product-title": "6mm Din plus EN plus A1 15kg Bags packaging Pine Wood Pellets",
         "product-benefits": "Benefits:\nQuick refunds on orders under US $1,000\nClaim now",
         "product-lead_time": "Quantity (tons) 1 - 1000 > 1000\nLead time (days) 15 To be negotiated",
         "product-shipping": "Express\nOcean freight\nLand freight"
      },
      "Product_Images": {
         "0": "https://s.alicdn.com/@img/imgextra/i4/6000000003915/O1CN01W8Zu5x1en7NVbLYNF_!!6000000003915-0-tbvideo.jpg_100x100xz.jpg",
         "1": "https://s.alicdn.com/@sc04/kf/H106b4ef72bc842968494bb4d4c92252dt.jpeg_100x100xz.jpeg",
         "2": "https://s.alicdn.com/@sc04/kf/H98affc886f954fd9b34d915b2d441c04A.jpg_100x100xz.jpg",
         "3": "https://s.alicdn.com/@sc04/kf/Ha8c95e3bb8704f54bb052a9ab8b51fc5C.png_100x100xz.png",
         "4": "https://s.alicdn.com/@sc04/kf/H58f3071ac5504c9b92225e6f6c874b923.png_100x100xz.png",
         "5": "https://s.alicdn.com/@sc04/kf/Hc91860ce42cb4086870f0999d53d6b20T.jpg_100x100xz.jpg",
         "6": "https://s.alicdn.com/@sc04/kf/H2be87a0d1aa74e7aa16864ecd17a7bd58.jpg_100x100xz.jpg"
      },
      "Product_Reviews": {},
      "Product_Price": {
         "price": "$160.00 - $250.00/ ton |1 ton/tons(Min. order)"
      },
      "Product_Overview": {
         "Application:": "Cooking Fuel",
         "Density:": ">500kg/m3",
         "Diameter:": "6-8mm/ 6-25mm",
         "Shape:": "Stick",
         "Length:": "<32mm",
         "Calory (J):": "4500",
         "Moisture (%):": "10",
         "Place of Origin:": "Zhejiang, China",
         "Brand Name:": "LH",
         "Model Number:": "MT-01",
         "Ash Content (%):": "1",
         "Product Name:": "A1 Wood Pellets",
         "Wood pellets:": "Bio Fuel",
         "Wood Type:": "100 % Pine Wood",
         "Package:": "15kg Plasctic Bags / Consumer's request",
         "Certification:": "ENplusA1/DINplusA1/NTA8080",
         "Quality:": "100% Uniform",
         "Feature:": "Eco-Friendly",
         "MOQ:": "1 Container 20ft",
         "COLOUR:": "Standard",
         "Usage:": "Heating Systym"
      }
   },
   "https://www.alibaba.com/product-detail/Roundup-Herbicide-Glyphosate-Roundup480-G-L_1659429683.html": {
      "Product_Detail": {
         "product-title": "Roundup Herbicide Glyphosate Roundup480 G/L",
         "product-benefits": "Benefits:\nQuick refunds on orders under US $1,000\nClaim now",
         "product-lead_time": "Quantity (liters) 1 - 10000 > 10000\nLead time (days) 15 To be negotiated",
         "product-customization": "Customized logo(Min. order 2000 liters)\nCustomized packaging(Min. order 2000 liters)\nMore",
         "product-shipping": "Express\nOcean freight\nLand freight\nAir freight"
      },
      "Product_Images": {
         "0": "https://s.alicdn.com/@img/imgextra/i4/6000000005047/O1CN01HlPdc31n9Zct8hgRE_!!6000000005047-0-tbvideo.jpg_100x100xz.jpg",
         "1": "https://s.alicdn.com/@sc04/kf/Hb0b637f5a6774c39811da691495612c2f.jpg_100x100xz.jpg",
         "2": "https://s.alicdn.com/@sc04/kf/Hc75ec348b5714f6bbcda49b1819adf7es.jpg_100x100xz.jpg",
         "3": "https://s.alicdn.com/@sc04/kf/H45bc35b43d8e4f90b936ea56311b78c6z.jpg_100x100xz.jpg",
         "4": "https://s.alicdn.com/@sc04/kf/Hb4001507b1d842cfb4868d3596f6e8f56.jpg_100x100xz.jpg",
         "5": "https://s.alicdn.com/@sc04/kf/Hd4645aa150e84ca597d22edfe73355c9J.jpg_100x100xz.jpg",
         "6": "https://s.alicdn.com/@sc04/kf/Hf78e85b9f1844155ae5a7cd3ffcf3158b.jpg_100x100xz.jpg"
      },
      "Product_Reviews": {},
      "Product_Price": {
         "price": "$2.00 - $7.00/ liter |1 liter/liters(Min. order)"
      },
      "Product_Overview": {
         "PD No.:": "83-6",
         "CAS No.:": "1071-83-6",
         "Other Names:": "Glyphosphate,PMG",
         "MF:": "C3H8NO5P",
         "EINECS No.:": "213-997-4",
         "Place of Origin:": "Hebei, China",
         "State:": "GRANULAR",
         "Purity:": "480",
         "Application:": "Herbicide",
         "Brand Name:": "Awiner",
         "Model Number:": "TC WDG SL",
         "Classification:": "Herbicide",
         "Appearance:": "yellowish transparent liquid",
         "Molecular weight:": "169.07",
         "Melting point:": "230\u2103",
         "PH:": "4.0-8.0",
         "Boiling point:": "465.8\u2103 at 760 mmHg",
         "Density:": "1.74g/cm3",
         "Flash point:": "235.5\u2103",
         "Water soluble:": "1.2g/100mL",
         "UN:": "UN3077 9/PG 3"
      }
   },
   "https://www.alibaba.com/product-detail/Factory-supply-high-quantity-99-8_1600465897124.html": {
      "Product_Detail": {
         "product-title": "Factory supply high quantity 99.8% N-Isopropylbenzylamine CAS 102-97-6 Benzylisopropylamine in stockPopular",
         "product-benefits": "Benefits:\nQuick refunds on orders under US $1,000\nClaim now",
         "product-customization": "Customized logo(Min. order 1000 grams)\nCustomized packaging(Min. order 1000 grams)\nMore",
         "product-shipping": "Express\nOcean freight\nLand freight\nAir freight"
      },
      "Product_Images": {
         "0": "https://s.alicdn.com/@img/imgextra/i4/6000000003311/O1CN01jSlRO91aKU74Ru40u_!!6000000003311-0-tbvideo.jpg_100x100xz.jpg",
         "1": "https://s.alicdn.com/@sc04/kf/H3b495584b0134723984433fad349d01db.jpg_100x100xz.jpg",
         "2": "https://s.alicdn.com/@sc04/kf/Hd115e086097b44a6abc2cfaa3b342b50X.jpg_100x100xz.jpg",
         "3": "https://s.alicdn.com/@sc04/kf/H94e0f57d4c6b4e29a219dfb438e52d32J.jpg_100x100xz.jpg",
         "4": "https://s.alicdn.com/@sc04/kf/H4c8a2790bf934300a52d6d507d85522f7.jpg_100x100xz.jpg",
         "5": "https://s.alicdn.com/@sc04/kf/Hb9d61907f3cc429e9c6898b789b39fe24.jpg_100x100xz.jpg",
         "6": "https://s.alicdn.com/@sc04/kf/H49d757efa9ba4edbb679c0e62fe9cf18B.jpg_100x100xz.jpg"
      },
      "Product_Reviews": {
         "global_reviews": "5.0",
         "Reviews": "1",
         "buyers": "10"
      },
      "Product_Price": {
         "price": "$0.50 - $2.30/ gram |1 gram/grams(Min. order)"
      },
      "Product_Overview": {
         "CAS No.:": "102-97-6",
         "Other Names:": "N-Isopropylbenzylamine",
         "MF:": "C10H15N",
         "EINECS No.:": "203-067-6",
         "Place of Origin:": "Shandong, China",
         "Type:": "Syntheses Material Intermediates",
         "Purity:": "99.8%",
         "Brand Name:": "zhishang",
         "Model Number:": "TH77",
         "Application:": "chemical synthesis",
         "Appearance:": "Colorless transparent crystal",
         "CAS number:": "102-97-6",
         "Color:": "Colorless transparent crystal",
         "Form:": "crystal",
         "MW:": "149.23",
         "MP:": "143\u00b0C (estimate)",
         "Package:": "25kg/drum",
         "Sample:": "available",
         "COA:": "available",
         "MOQ:": "1kg",
         "Shelf life:": "2 Years"
      }
   },
   "https://www.alibaba.com/product-detail/High-Quality-CAS-102-97-6_1600309355859.html": {
      "Product_Detail": {
         "product-title": "High Quality CAS 102-97-6 n-isopropylbenzylamine white crystals",
         "product-benefits": "Benefits:\nQuick refunds on orders under US $1,000\nClaim now",
         "product-lead_time": "Quantity (kilograms) 1 - 50 51 - 500 > 500\nLead time (days) 7 14 To be negotiated",
         "product-customization": "Customized logo(Min. order 500 kilograms)\nCustomized packaging(Min. order 500 kilograms)\nMore"
      },
      "Product_Images": {
         "0": "https://s.alicdn.com/@sc04/kf/Hd6b5f209b8294fa69569a70688e80628o.jpg_100x100xz.jpg",
         "1": "https://s.alicdn.com/@sc04/kf/H34d12e571b0f44dead0d0ff7231cd0f1d.jpg_100x100xz.jpg",
         "2": "https://s.alicdn.com/@sc04/kf/H20dd581ceaff43d7bd275f5cc36b4a29x.jpg_100x100xz.jpg",
         "3": "https://s.alicdn.com/@sc04/kf/H0cf1c7e04e274c79991250723628e613a.jpg_100x100xz.jpg",
         "4": "https://s.alicdn.com/@sc04/kf/H1af1149011a0473f8ad3cc0547d766c49.jpg_100x100xz.jpg",
         "5": "https://s.alicdn.com/@sc04/kf/H34c178c97b334e7193940b82a3b97c7fF.jpg_100x100xz.jpg"
      },
      "Product_Reviews": {},
      "Product_Price": {
         "price": "$50.00 - $100.00/ kilogram |1 kilogram/kilograms(Min. order)"
      },
      "Product_Overview": {
         "CAS No.:": "102-97-6",
         "Other Names:": "Isopropylbenzylamine",
         "MF:": "C10H15N",
         "EINECS No.:": "203-067-6",
         "Place of Origin:": "Hebei, China",
         "Type:": "Syntheses Material Intermediates, White Crystal Isopropylbenzylamine CAS 102-97-6",
         "Purity:": "99%",
         "Brand Name:": "NEPU",
         "Model Number:": "NP 102-97-6",
         "Application:": "Organic Intermediates",
         "Appearance:": "White Crystal",
         "Product name:": "Isopropylbenzylamine",
         "CAS:": "102-97-6",
         "Molecular Weight:": "149.23",
         "Apperance:": "Isopropylbenzylamine Crystal",
         "Melting point:": "143\u00b0C",
         "Boiling point:": "200 \u00b0C",
         "Density:": "0.892 g/mL at 25 \u00b0C",
         "Flash point:": "190 \u00b0F",
         "Keyword:": "Isopropylbenzylamine",
         "Package:": "25kg/carton Drum"
      }
   },
   "https://www.alibaba.com/product-detail/Wood-Pellet-001_1600589982897.html": {
      "Product_Detail": {
         "product-title": "Wood Pellet 001",
         "product-lead_time": "Quantity (pieces) 1 - 1 > 1\nLead time (days) 7 To be negotiated",
         "product-shipping": "Express\nOcean freight\nLand freight\nAir freight"
      },
      "Product_Images": {
         "0": "https://s.alicdn.com/@sc04/kf/A4289dedf1106416eb25de76f1205b059y.jpg_100x100xz.jpg"
      },
      "Product_Reviews": {},
      "Product_Price": {
         ">= 1 pieces": "$2.00"
      },
      "Product_Overview": {
         "Application:": "Heating System",
         "Density:": "1100-1300KG/M3 Min",
         "Diameter:": "6-8mm",
         "Shape:": "Briquette",
         "Length:": "10mm~40mm",
         "Calory (J):": "100",
         "Moisture (%):": "100",
         "Place of Origin:": "France",
         "Brand Name:": "Din+ Wood Pellets",
         "Model Number:": "Wood Pellet 001",
         "Ash Content (%):": "100",
         "Product Name:": "Wood Pellets"
      }
   },
   "https://www.alibaba.com/product-detail/A1-Premium-Wood-Pellets-6mm-8mm_1600382830543.html": {
      "Product_Detail": {
         "product-title": "A1 Premium Wood Pellets 6mm 8mm | Big Bag or 15 kg bags | Fuel Oak/ Pine Wood Pellets (BSL Approved Wood Pellets In 15kg bags)",
         "product-lead_time": "Quantity (bags) 1 - 1000 > 1000\nLead time (days) 5 To be negotiated",
         "product-customization": "Customized logo(Min. order 24 bags)\nCustomized packaging(Min. order 24 bags)\nMore",
         "product-shipping": "Ocean freight"
      },
      "Product_Images": {
         "0": "https://s.alicdn.com/@sc04/kf/Ad855ff67815d4cb997ca8433e8d3f9acd.jpeg_100x100xz.jpeg",
         "1": "https://s.alicdn.com/@sc04/kf/Ad855ff67815d4cb997ca8433e8d3f9acd.jpeg_100x100xz.jpeg",
         "2": "https://s.alicdn.com/@sc04/kf/A9679c9a737404c7ebcc7adb257260faaQ.jpeg_100x100xz.jpeg",
         "3": "https://s.alicdn.com/@sc04/kf/A43d989dac3354c178ed844203fd2adc3F.jpeg_100x100xz.jpeg",
         "4": "https://s.alicdn.com/@sc04/kf/A01f1284f46fa4147886b9fb918da1d14q.jpeg_100x100xz.jpeg",
         "5": "https://s.alicdn.com/@sc04/kf/Ae14de1f7d67b45deb02958357daeea5aw.jpeg_100x100xz.jpeg",
         "6": "https://s.alicdn.com/@sc04/kf/A0553d264b656492b8f93846aace75a81P.jpeg_100x100xz.jpeg"
      },
      "Product_Reviews": {},
      "Product_Price": {
         ">= 500 bags": "$0.90"
      },
      "Product_Overview": {
         "Application:": "Heating System",
         "Density:": "more than 1.0g/cm3",
         "Diameter:": "6,8,10,12mm",
         "Shape:": "Briquette",
         "Length:": "6mm 8mm",
         "Calory (J):": "4500",
         "Moisture (%):": "12",
         "Place of Origin:": "Austria",
         "Brand Name:": "A1 wood pellets",
         "Model Number:": "46576868655",
         "Ash Content (%):": "0.3",
         "Material:": "Pine wood"
      }
   },
   "https://www.alibaba.com/product-detail/Safety-High-purity-99-min-N_1600487216867.html": {
      "Product_Detail": {
         "product-title": "Safety High purity 99%min N-Isopropylbenzylamine 102-97-6 C10H15N",
         "product-benefits": "Benefits:\nQuick refunds on orders under US $1,000\nClaim now",
         "product-lead_time": "Quantity (grams) 1 - 10 > 10\nLead time (days) 3 To be negotiated",
         "product-shipping": "Express\nOcean freight"
      },
      "Product_Images": {
         "0": "https://s.alicdn.com/@img/imgextra/i3/6000000003268/O1CN01xJjWDL1a0n4s0crGA_!!6000000003268-0-tbvideo.jpg_100x100xz.jpg",
         "1": "https://s.alicdn.com/@sc04/kf/H8611f561173e43febc482a887b15dd7en.jpg_100x100xz.jpg",
         "2": "https://s.alicdn.com/@sc04/kf/H580d03500e9e4ccfbd8518124d9e1517p.jpg_100x100xz.jpg",
         "3": "https://s.alicdn.com/@sc04/kf/H316da7cf3ca647d589bb0f08848df2b6F.jpg_100x100xz.jpg",
         "4": "https://s.alicdn.com/@sc04/kf/H41182d5d23fc45e7b3bb98bfbd27e2c4V.jpg_100x100xz.jpg",
         "5": "https://s.alicdn.com/@sc04/kf/H790f8f04c4eb4f05993e2836c48b3d87U.jpg_100x100xz.jpg",
         "6": "https://s.alicdn.com/@sc04/kf/H56aa4422c41446baa1aba54d73745027j.jpg_100x100xz.jpg"
      },
      "Product_Reviews": {
         "buyers": "1 buyer"
      },
      "Product_Price": {
         "1 - 9 grams": "\u20ac0.6208",
         ">= 10 grams": "\u20ac0.573"
      },
      "Product_Overview": {
         "CAS No.:": "102-97-6",
         "Other Names:": "N-Isopropylbenzylamine",
         "MF:": "C10H15N",
         "EINECS No.:": "203-067-6",
         "Place of Origin:": "Hebei, China",
         "Type:": "Syntheses Material Intermediates",
         "Purity:": "99.8%",
         "Brand Name:": "Yaoluo",
         "Model Number:": "YL-102-97-6",
         "Application:": "Organic intermediate",
         "Appearance:": "Colorless Crystal / Colored Crystal",
         "Product name:": "N-Isopropylbenzylamine",
         "CAS:": "102-97-6",
         "Package:": "1kg/foil bag 25kg/drum",
         "Storage:": "Cool Dry Place",
         "MOQ:": "500 grams",
         "Shelf life:": "2 Years",
         "Sample:": "Available",
         "Certification:": "COA MSDS TDS",
         "Melting point:": "143 \u2103",
         "Boiling point:": "200 \u2103"
      }
   },
   "https://www.alibaba.com/product-detail/High-quality-biomass-wood-pellets-for_11000001722531.html": {
      "Product_Detail": {
         "product-title": "High quality biomass wood pellets for heating system",
         "product-lead_time": "Quantity (tons) 1 - 100000 > 100000\nLead time (days) 7 To be negotiated",
         "product-customization": "Customized logo(Min. order 27 tons)\nCustomized packaging(Min. order 27 tons)\nMore",
         "product-shipping": "Express\nOcean freight\nLand freight"
      },
      "Product_Images": {
         "0": "https://s.alicdn.com/@sc04/kf/U84b0eaf00d3c478996624a4eddcb7cb4Q.jpeg_100x100xz.jpeg",
         "1": "https://s.alicdn.com/@sc04/kf/U84b0eaf00d3c478996624a4eddcb7cb4Q.jpeg_100x100xz.jpeg",
         "2": "https://s.alicdn.com/@sc04/kf/Ued69bfec8bd04ea8ac3a4172609f61c0s.jpeg_100x100xz.jpeg",
         "3": "https://s.alicdn.com/@sc04/kf/U5e7e8cf61d6642f78be811ed9f22ead9c.jpeg_100x100xz.jpeg",
         "4": "https://s.alicdn.com/@sc04/kf/U19223921af7a4933b536be5cf638e2145.jpeg_100x100xz.jpeg",
         "5": "https://s.alicdn.com/@sc04/kf/U01b6a91830ef475ba5bbd7819bbfa3d57.jpeg_100x100xz.jpeg",
         "6": "https://s.alicdn.com/@sc04/kf/U4f673a86649e473d968504efe0ce69a4c.jpeg_100x100xz.jpeg"
      },
      "Product_Reviews": {},
      "Product_Price": {
         ">= 1 tons": "\u20ac42.98"
      },
      "Product_Overview": {
         "Application:": "Heating System",
         "Density:": ">1.12g/cm3",
         "Diameter:": "6-9 mm",
         "Shape:": "Stick",
         "Length:": "<40mm",
         "Calory (J):": "4600",
         "Moisture (%):": "5.3",
         "Place of Origin:": "Germany",
         "Brand Name:": "Wood Pellets",
         "Model Number:": "All Models",
         "Ash Content (%):": "0.9"
      }
   },
   "https://www.alibaba.com/product-detail/DAP-FERTILIZERS-18-46-0-Diammonium_11000001581844.html": {
      "Product_Detail": {
         "product-title": "DAP FERTILIZERS 18-46-0 | Diammonium Phosphate (DAP)",
         "product-benefits": "Benefits:\nQuick refunds on orders under US $1,000\nClaim now",
         "product-lead_time": "Quantity (metric tons) 1 - 12500 > 12500\nLead time (days) 21 To be negotiated",
         "product-customization": "Customized logo(Min. order 100 metric tons)\nCustomized packaging(Min. order 500 metric tons)\nMore",
         "product-shipping": "Express\nOcean freight\nLand freight\nAir freight"
      },
      "Product_Images": {
         "0": "https://s.alicdn.com/@img/imgextra/i1/6000000002981/O1CN01AhznNx1XtLPUpuEaX_!!6000000002981-0-tbvideo.jpg_100x100xz.jpg",
         "1": "https://s.alicdn.com/@sc04/kf/U46dc020e5c014420af6a9b23f28521d09.jpg_100x100xz.jpg",
         "2": "https://s.alicdn.com/@sc04/kf/U71ac002437c9476d827ff707bae134545.jpg_100x100xz.jpg",
         "3": "https://s.alicdn.com/@sc04/kf/Uab9e9d6356ca4e3c98d5c438e985bf87W.jpg_100x100xz.jpg",
         "4": "https://s.alicdn.com/@sc04/kf/U20d465babb4d444f958d6e1894dc1923W.jpg_100x100xz.jpg",
         "5": "https://s.alicdn.com/@sc04/kf/U68f4f3b9b0f64cb984c3218194afd57aq.jpg_100x100xz.jpg",
         "6": "https://s.alicdn.com/@sc04/kf/U99e6c5c443934bf59c92f35875505d01B.jpg_100x100xz.jpg"
      },
      "Product_Reviews": {},
      "Product_Price": {
         "price": "\u20ac0.955 - \u20ac4.78/ metric ton |100 metric ton/metric tons(Min. order)"
      },
      "Product_Overview": {
         "Classification:": "Compound Fertilizer",
         "Type:": "DAP",
         "CAS No.:": "7783-28-0",
         "Other Names:": "Nitrogen Phosphorus Potassium",
         "EINECS No.:": "299-347-8",
         "Place of Origin:": "Nusa Tenggara Timur, Indonesia",
         "Release Type:": "Quick",
         "State:": "GRANULAR",
         "Purity:": "99.9%",
         "Application:": "Fertilizers",
         "Brand Name:": "OEM Brand",
         "Model Number:": "81918"
      }
   },
   "https://www.alibaba.com/product-detail/Fast-Delivery-High-purity-99-min_1600487251743.html": {
      "Product_Detail": {
         "product-title": "Fast Delivery High purity 99%min N-Isopropylbenzylamine 102-97-6 C10H15N",
         "product-benefits": "Benefits:\nQuick refunds on orders under US $1,000\nClaim now",
         "product-lead_time": "Quantity (grams) 1 - 10 > 10\nLead time (days) 3 To be negotiated",
         "product-shipping": "Express\nOcean freight"
      },
      "Product_Images": {
         "0": "https://s.alicdn.com/@img/imgextra/i3/6000000003268/O1CN01xJjWDL1a0n4s0crGA_!!6000000003268-0-tbvideo.jpg_100x100xz.jpg",
         "1": "https://s.alicdn.com/@sc04/kf/H885366d526f444ba9dd19bfca730ea6cE.png_100x100xz.png",
         "2": "https://s.alicdn.com/@sc04/kf/H2ae9bd48a0714337a4459b41797c9802h.jpg_100x100xz.jpg",
         "3": "https://s.alicdn.com/@sc04/kf/H0777d7e0637b4e48abf30256c7def9e5v.png_100x100xz.png",
         "4": "https://s.alicdn.com/@sc04/kf/H6c1a03e6dfc343e1af07f26586db5d3ao.jpg_100x100xz.jpg",
         "5": "https://s.alicdn.com/@sc04/kf/Hecc317cf26094e7ab6361ec4bdf3851dW.jpg_100x100xz.jpg",
         "6": "https://s.alicdn.com/@sc04/kf/Ha71305a8fd8f46c7b649c6255dff0429r.jpg_100x100xz.jpg"
      },
      "Product_Reviews": {
         "buyers": "1 buyer"
      },
      "Product_Price": {
         "1 - 9 grams": "\u20ac0.6208",
         ">= 10 grams": "\u20ac0.573"
      },
      "Product_Overview": {
         "CAS No.:": "102-97-6",
         "Other Names:": "N-Isopropylbenzylamine",
         "MF:": "C10H15N",
         "EINECS No.:": "203-067-6",
         "Place of Origin:": "Hebei, China",
         "Type:": "Syntheses Material Intermediates",
         "Purity:": "99.8%",
         "Brand Name:": "Yaoluo",
         "Model Number:": "YL-102-97-6",
         "Application:": "Organic intermediate",
         "Appearance:": "Colorless Crystal / Colored Crystal",
         "Product name:": "N-Isopropylbenzylamine",
         "CAS:": "102-97-6",
         "Package:": "1kg/foil bag 25kg/drum",
         "Storage:": "Cool Dry Place",
         "MOQ:": "500 grams",
         "Shelf life:": "2 Years",
         "Sample:": "Available",
         "Certification:": "COA MSDS TDS",
         "Melting point:": "143 \u2103",
         "Boiling point:": "200 \u2103"
      }
   },
   "https://www.alibaba.com/product-detail/RTV-Gasket-Maker-With-High-temperature_1600481196976.html": {
      "Product_Detail": {
         "product-title": "RTV Gasket Maker With High temperature resistance Reinzolil Rtv Silicone Sealant With Blue Box",
         "product-benefits": "Benefits:\nUS $10 off with a new supplier\nClaim now",
         "product-samples": "\u20ac4.78/piece\nMin. order : 1 piece\nGet samples",
         "product-lead_time": "Quantity (pieces) 1 - 3000 3001 - 10000 10001 - 30000 > 30000\nLead time (days) 7 10 25 To be negotiated",
         "product-customization": "Customized logo(Min. order 500 pieces)\nCustomized packaging(Min. order 1000 pieces)\nMore",
         "product-shipping": "Express\nOcean freight\nLand freight\nAir freight"
      },
      "Product_Images": {
         "0": "https://s.alicdn.com/@img/imgextra/i3/6000000002867/O1CN01vwXE751X38Gf8Ucq2_!!6000000002867-0-tbvideo.jpg_100x100xz.jpg",
         "1": "https://s.alicdn.com/@sc04/kf/H1088781f2dfe4190b1449fb3511bc493Z.jpg_100x100xz.jpg",
         "2": "https://s.alicdn.com/@sc04/kf/H259a56aaf8b440029beee1eff3f14546Q.png_100x100xz.png",
         "3": "https://s.alicdn.com/@sc04/kf/H4850b47c15b647859e3c3dd37e403464j.jpg_100x100xz.jpg",
         "4": "https://s.alicdn.com/@sc04/kf/Hcf85d08ffc29491bae2372e5a5d88b7eT.jpg_100x100xz.jpg",
         "5": "https://s.alicdn.com/@sc04/kf/H61c4a65aff2f49d4b971446508df9aaeG.jpg_100x100xz.jpg",
         "6": "https://s.alicdn.com/@sc04/kf/H33ca542bc4f64b0ab1cb18c2afc15655b.jpg_100x100xz.jpg"
      },
      "Product_Reviews": {},
      "Product_Price": {
         "1 - 9999 pieces": "\u20ac0.3534",
         "10000 - 29999 pieces": "\u20ac0.3247",
         "30000 - 49999 pieces": "\u20ac0.2388",
         ">= 50000 pieces": "\u20ac0.086"
      },
      "Product_Overview": {
         "CAS No.:": "nono",
         "Other Names:": "RTV Gasket Maker With High temperature resistance",
         "MF:": "none",
         "EINECS No.:": "none",
         "Place of Origin:": "Hubei, China",
         "Classification:": "Hot Melt Adhesives",
         "Main Raw Material:": "Silicone",
         "Usage:": "Construction, Packing, Transportation",
         "Brand Name:": "Forsen",
         "Model Number:": "red blue grey black clear white",
         "Type:": "general",
         "Material:": "100% Silicone",
         "Color:": "grey red black blue white clear",
         "Keywords:": "gasket maker",
         "Shelf life:": "24 Months",
         "Certificate:": "ISO9001",
         "Advantage:": "High quality good price",
         "Application range:": "automotive",
         "MOQ:": "1 Carton",
         "OEM:": "Yes",
         "Product name:": "85g rtv silicone gasket maker with blue box"
      }
   },
   "https://www.alibaba.com/product-detail/50g-jar-Epoxy-Resin-Mica-Powder_1600433624425.html": {
      "Product_Detail": {
         "product-title": "50g/jar Epoxy Resin Mica Powder Pigment For Nail Art Craft Products DIY Pearlescent Pigment For Painting Slime And InkPopular",
         "product-benefits": "Benefits:\nUS $500 coupons\nClaim now",
         "product-samples": "\u20ac0.573/piece\nMin. order : 1 piece\nGet samples",
         "product-lead_time": "Quantity (pieces) 1 - 500 501 - 1001 1002 - 10000 > 10000\nLead time (days) 7 10 30 To be negotiated",
         "product-customization": "Customized logo(Min. order 1000 pieces)\nCustomized packaging(Min. order 1000 pieces)\nMore",
         "product-shipping": "Express\nOcean freight\nLand freight\nAir freight"
      },
      "Product_Images": {
         "0": "https://s.alicdn.com/@img/imgextra/i4/6000000004304/O1CN01Ci4Pjn1hfHP3KhPhQ_!!6000000004304-0-tbvideo.jpg_100x100xz.jpg",
         "1": "https://s.alicdn.com/@sc04/kf/Hf8039e6fbb9b460a8f1f59bc1e26c91aZ.jpg_100x100xz.jpg",
         "2": "https://s.alicdn.com/@sc04/kf/H4e5acbb8f08d47be8800210e65f8901fi.jpg_100x100xz.jpg",
         "3": "https://s.alicdn.com/@sc04/kf/H387c5f7afa504e48b85dd662465c0778R.jpg_100x100xz.jpg",
         "4": "https://s.alicdn.com/@sc04/kf/He14a1a3143a34db19283bce3703f6d074.png_100x100xz.png",
         "5": "https://s.alicdn.com/@sc04/kf/H9faa01d88ffb4a8f8332edd6fa153a7e8.png_100x100xz.png",
         "6": "https://s.alicdn.com/@sc04/kf/H1cabc71d3c634465b978ec732df51e5eU.jpg_100x100xz.jpg"
      },
      "Product_Reviews": {
         "global_reviews": "5.0",
         "Reviews": "2",
         "buyers": "11"
      },
      "Product_Price": {
         "1 - 4999 pieces": "\u20ac0.955",
         "5000 - 9999 pieces": "\u20ac0.9073",
         ">= 10000 pieces": "\u20ac0.8595"
      },
      "Product_Overview": {
         "CAS No.:": "Please consult the customer service staff",
         "Other Names:": "Pearl Powder, pearlescent pigment",
         "MF:": "Please consult the customer service staff",
         "EINECS No.:": "Please consult the customer service staff",
         "Place of Origin:": "Guangdong, China",
         "Usage:": "Coating Pigment, Ink Pigments, Plastic & Rubber Pigment",
         "Brand Name:": "Chunse",
         "Model Number:": "DK",
         "Type:": "MICA POWDER",
         "Style:": "Organic Pigment",
         "Product name:": "54 Colors Mica powder",
         "Color:": "54 colors (other color can be customized)",
         "Form:": "Powder Form",
         "MOQ:": "1pc",
         "Net Weight:": "50G/PC",
         "Package:": "jar/opp bag (package can be customized)"
      }
   },
   "https://www.alibaba.com/product-detail/Agricultural-Grade-Industrial-Grade-Urea-46_1600539842385.html": {
      "Product_Detail": {
         "product-title": "Agricultural Grade Industrial Grade Urea 46% Nitrogen Fertilizer",
         "product-lead_time": "Quantity (metric tons) 1 - 20 > 20\nLead time (days) 10 To be negotiated",
         "product-shipping": "Ocean freight"
      },
      "Product_Images": {
         "0": "https://s.alicdn.com/@sc04/kf/A633bb358398241eeb94334fba4c467f6C.jpeg_100x100xz.jpeg",
         "1": "https://s.alicdn.com/@sc04/kf/A77ae53abb93b4695b67791447930a497c.jpg_100x100xz.jpg",
         "2": "https://s.alicdn.com/@sc04/kf/A0c632005e5f046d29f3ff58425e70b9cm.jpg_100x100xz.jpg",
         "3": "https://s.alicdn.com/@sc04/kf/A0d75c1897beb4c3e9b9c2b7a37b9ef516.jpg_100x100xz.jpg",
         "4": "https://s.alicdn.com/@sc04/kf/Af322ba5f5033491f8879c0b1cc2430d1b.jpg_100x100xz.jpg",
         "5": "https://s.alicdn.com/@sc04/kf/A6842961d9c324834ab01cec3c15c9f52z.jpg_100x100xz.jpg"
      },
      "Product_Reviews": {},
      "Product_Price": {
         ">= 1 metric tons": "\u20ac47.75"
      },
      "Product_Overview": {
         "Classification:": "Nitrogen Fertilizer",
         "Type:": "Nitrogen fertilizer",
         "CAS No.:": "9011-05-6",
         "Other Names:": "MU, MDU",
         "MF:": "None",
         "EINECS No.:": "None",
         "Place of Origin:": "Germany",
         "Release Type:": "Slow",
         "State:": "GRANULAR",
         "Purity:": "99.8%",
         "Application:": "Raw material",
         "Brand Name:": "Urea Nitrogen Fertilizer",
         "Model Number:": "1",
         "Product Name:": "Urea Fertilizer N46",
         "Grade:": "Agricultral",
         "Urea other name:": "USP Grade Carbamide"
      }
   }
}